version 3
run General-0-20240518-02:57:05-79078
attr configname General
attr datetime 20240518-02:57:05
attr datetimef 20240518-025705
attr experiment General
attr inifile omnetpp.ini
attr iterationvars ""
attr iterationvarsd ""
attr iterationvarsf ""
attr measurement ""
attr network Network
attr processid 79078
attr repetition 0
attr replication #0
attr resultdir results
attr runnumber 0
attr seedset 0
config network Network
config sim-time-limit 200s
config Network.nodeTx.gen.generationInterval exponential(0.15)
config Network.nodeTx.gen.packetByteSize 12500
config Network.nodeTx.TrTx.bufferSize 200000
config Network.nodeTx.TrTx.serviceTime exponential(0.1)
config Network.nodeRx.TrRx.bufferSize 200
config Network.nodeRx.TrRx.serviceTime exponential(0.1)
config Network.queue_1.bufferSize 200
config Network.queue_1.serviceTime exponential(0.1)
config Network.queue_2.bufferSize 200
config Network.queue_2.serviceTime exponential(0.1)

vector 0 Network.nodeTx.TrTx Queue_PacketDrop ETV
vector 1 Network.queue_1 packetDrop ETV
vector 2 Network.queue_2 packetDrop ETV
vector 3 Network.nodeRx.TrRx Queue_PacketDrop ETV
vector 4 Network.nodeTx.gen generatedPackets ETV
vector 5 Network.nodeTx.TrTx Queue_BufferSize ETV
vector 6 Network.queue_1 bufferSize ETV
vector 7 Network.nodeRx.TrRx Queue_BufferSize ETV
vector 8 Network.nodeRx.sink Delay ETV
vector 9 Network.nodeRx.sink receivedPackets ETV
vector 10 Network.queue_2 bufferSize ETV
0	0	0	0
1	0	0	0
2	0	0	0
3	0	0	0
4	1	0.119381175685	1
4	7	0.254165233958	2
4	16	0.442554847665	3
4	30	0.721495479476	4
4	36	0.859978949197	5
4	51	1.15271074958	6
4	57	1.270790920577	7
4	70	1.552635528707	8
4	76	1.635292801708	9
4	88	1.781843765667	10
4	96	1.937567660767	11
4	104	2.010336885325	12
4	111	2.096664764857	13
4	119	2.149638635728	14
4	136	2.483167299033	15
4	139	2.491924999397	16
4	157	2.989161841386	17
4	161	3.036915262512	18
4	168	3.109455578254	19
4	178	3.206872530492	20
4	191	3.442206948135	21
4	203	3.693038628184	22
4	211	3.805939745181	23
4	217	3.904022130264	24
4	229	4.029937058199	25
4	233	4.104767859551	26
4	251	4.494505972428	27
4	263	4.765761362069	28
4	267	4.776814165389	29
4	270	4.838550864825	30
4	272	4.852225018744	31
4	285	5.00891689499	32
4	287	5.01198073325	33
4	294	5.080867953838	34
4	308	5.348991103354	35
4	331	5.821516592655	36
4	341	6.047384231451	37
4	345	6.070068859501	38
4	361	6.376115998192	39
4	371	6.682249830579	40
4	385	7.25903311095	41
4	391	7.355289486852	42
4	405	7.596075420411	43
4	415	7.838175731645	44
4	419	7.931015150589	45
4	431	8.041259813767	46
4	443	8.268740209866	47
4	451	8.439131051123	48
4	455	8.458012212539	49
4	469	8.649296367873	50
4	479	8.802511149025	51
4	487	8.933359328281	52
4	493	8.956568780356	53
4	502	9.072193979126	54
4	519	9.506357050824	55
4	529	9.719561752838	56
4	537	9.830235846601	57
4	541	9.847027770696	58
4	546	9.92736262873	59
4	554	10.023616834035	60
4	561	10.069708886858	61
4	563	10.100639379163	62
4	577	10.323877603026	63
4	591	10.52417113072	64
4	601	10.615533494197	65
4	609	10.652140767807	66
4	619	10.778190973649	67
4	622	10.799982677743	68
4	624	10.802827963123	69
4	631	10.861593584725	70
4	640	11.005800725585	71
4	642	11.030121199002	72
4	656	11.172170700578	73
4	658	11.209886990389	74
4	672	11.353819186994	75
4	674	11.42710274439	76
4	703	11.858789997582	77
4	717	12.208127003714	78
4	725	12.379897846919	79
4	731	12.469559758442	80
4	738	12.5363875327	81
4	748	12.678811720225	82
4	758	12.764991581236	83
4	773	13.11394424049	84
4	781	13.293360410409	85
4	785	13.309044594275	86
4	790	13.318361887845	87
4	812	13.843393940513	88
4	820	14.008230810646	89
4	830	14.167055930369	90
4	838	14.333645547222	91
4	844	14.361759457125	92
4	849	14.397190463037	93
4	855	14.46370106733	94
4	857	14.484405370594	95
4	871	14.692761774063	96
4	878	14.749606068705	97
4	887	14.890015302671	98
4	896	14.957830611705	99
4	898	15.016797495301	100
4	909	15.14346166433	101
4	912	15.149339137792	102
4	920	15.235937784413	103
4	930	15.386818435188	104
4	958	16.054992962114	105
4	970	16.533934958422	106
4	974	16.550080224645	107
4	983	16.708754186648	108
4	990	16.743899414464	109
4	1000	16.895102301277	110
4	1003	16.921489333091	111
4	1028	17.725504385627	112
4	1036	17.884315792891	113
4	1046	18.015103170935	114
4	1050	18.058915250925	115
4	1059	18.139174952487	116
4	1069	18.233366189636	117
4	1077	18.329933339876	118
4	1082	18.371974891148	119
4	1093	18.518504502259	120
4	1096	18.544473620681	121
4	1100	18.606348805169	122
4	1106	18.623892116638	123
4	1116	18.792367361868	124
4	1128	18.95257819144	125
4	1132	19.009811567946	126
4	1139	19.032118408334	127
4	1153	19.258113708325	128
4	1155	19.290945797801	129
4	1181	19.739024281579	130
4	1187	19.80802637524	131
4	1199	19.970966782372	132
4	1211	20.229016531029	133
4	1214	20.231066217794	134
4	1217	20.246387950023	135
4	1225	20.392653240146	136
4	1242	20.665626078039	137
4	1252	20.833598232902	138
4	1256	20.848753449198	139
4	1276	21.38479170505	140
4	1288	21.947146423988	141
4	1300	22.262944619107	142
4	1306	22.357795108566	143
4	1316	22.464682647566	144
4	1332	23.028971740242	145
4	1335	23.037570779206	146
4	1344	23.176842553741	147
4	1352	23.266834586737	148
4	1365	23.46847137756	149
4	1368	23.471499896782	150
4	1370	23.477496341641	151
4	1377	23.564928099971	152
4	1383	23.614789636116	153
4	1411	24.198525154543	154
4	1415	24.21773366934	155
4	1418	24.284546588628	156
4	1424	24.337223002035	157
4	1433	24.43556994469	158
4	1435	24.454528240154	159
4	1449	24.629559269136	160
4	1451	24.686964411465	161
4	1475	25.005599991015	162
4	1479	25.085832647379	163
4	1497	25.461419414842	164
4	1500	25.471364025064	165
4	1503	25.508023342276	166
4	1516	25.684901771336	167
4	1526	25.809828298746	168
4	1534	25.935242928542	169
4	1551	26.235729006918	170
4	1555	26.281991232933	171
4	1564	26.388678423516	172
4	1572	26.499792266083	173
4	1589	26.87262961963	174
4	1593	26.887427165893	175
4	1609	27.268472842087	176
4	1617	27.397157188248	177
4	1621	27.410172760599	178
4	1639	27.8075611499	179
4	1643	27.856362212229	180
4	1649	27.913896244344	181
4	1651	27.915306356944	182
4	1661	28.080433243458	183
4	1680	28.357532391108	184
4	1684	28.378731998142	185
4	1693	28.534999096269	186
4	1706	28.723989167785	187
4	1720	29.000181538508	188
4	1724	29.051429663562	189
4	1727	29.097557322126	190
4	1733	29.127909887911	191
4	1741	29.203989906399	192
4	1749	29.336459262693	193
4	1758	29.457178872663	194
4	1760	29.460225741482	195
4	1762	29.48726357928	196
4	1781	29.752124740142	197
4	1790	29.821384374549	198
4	1792	29.822090355623	199
4	1794	29.845841581558	200
4	1808	30.015736702854	201
4	1815	30.142199157676	202
4	1819	30.189407406804	203
4	1833	30.371883704819	204
4	1847	30.571197385882	205
4	1854	30.622249396617	206
4	1875	31.113520873274	207
4	1881	31.198706496296	208
4	1888	31.241609642172	209
4	1901	31.453263303566	210
4	1911	31.58202224874	211
4	1917	31.657673819728	212
4	1929	31.792162450346	213
4	1941	32.131722486725	214
4	1949	32.25910560846	215
4	1959	32.411904417963	216
4	1963	32.449767416897	217
4	1981	32.782993451668	218
4	1993	33.240835700201	219
4	2001	33.411776894731	220
4	2007	33.500670498849	221
4	2016	33.590127407998	222
4	2031	33.871146389977	223
4	2045	34.447597377464	224
4	2053	34.627933162551	225
4	2057	34.646462159655	226
4	2062	34.699415179646	227
4	2075	34.917937963431	228
4	2092	35.170076294113	229
4	2096	35.249684668605	230
4	2103	35.325437480768	231
4	2116	35.494229783295	232
4	2130	35.813654692705	233
4	2134	35.856766264116	234
4	2143	35.987346638065	235
4	2151	36.043707464426	236
4	2168	36.363932031923	237
4	2180	36.868587599881	238
4	2188	37.045495039928	239
4	2198	37.178674251494	240
4	2208	37.372460641814	241
4	2216	37.534135874434	242
4	2226	37.638505793569	243
4	2234	37.752785959263	244
4	2250	38.221606212912	245
4	2254	38.260914799163	246
4	2263	38.41583435076	247
4	2271	38.491180970499	248
4	2281	38.573890369019	249
4	2289	38.718558403843	250
4	2302	38.858418835904	251
4	2310	38.955034542152	252
4	2313	38.957941509354	253
4	2319	39.053210666699	254
4	2326	39.107049749079	255
4	2340	39.295906276669	256
4	2350	39.457804306467	257
4	2358	39.508754016354	258
4	2367	39.560143960059	259
4	2370	39.632689313047	260
4	2384	39.777045571413	261
4	2397	39.984492452394	262
4	2403	40.068486612905	263
4	2419	40.384603753648	264
4	2423	40.406439850415	265
4	2426	40.422721915189	266
4	2428	40.475855535026	267
4	2433	40.490393948213	268
4	2443	40.616977219102	269
4	2445	40.682531421168	270
4	2459	40.816590782914	271
4	2466	40.936973580778	272
4	2475	41.065085541124	273
4	2477	41.070216053878	274
4	2491	41.229067461685	275
4	2517	41.749947783577	276
4	2525	41.908325224876	277
4	2533	41.966394738698	278
4	2540	42.051086313866	279
4	2543	42.088598538113	280
4	2564	42.428893637017	281
4	2568	42.451737680805	282
4	2571	42.520463613399	283
4	2576	42.535811705627	284
4	2581	42.621680938341	285
4	2609	43.242352402418	286
4	2621	43.576089601002	287
4	2625	43.621324487986	288
4	2637	43.867459124675	289
4	2647	43.982970653607	290
4	2657	44.165523577908	291
4	2663	44.254634602657	292
4	2669	44.270476499201	293
4	2672	44.286208774541	294
4	2691	44.664101094053	295
4	2697	44.729252942445	296
4	2709	44.917144071182	297
4	2717	45.01216346384	298
4	2739	46.026972041831	299
4	2749	46.302931959593	300
4	2753	46.3272124726	301
4	2769	46.679739066063	302
4	2781	46.983625388628	303
4	2784	46.989367825561	304
4	2787	47.015966661833	305
4	2793	47.122454350917	306
4	2802	47.265849314505	307
4	2808	47.293230104787	308
4	2811	47.313057661229	309
4	2825	47.53953117957	310
4	2844	47.822120512558	311
4	2856	48.122418486887	312
4	2868	48.369426352086	313
4	2872	48.448926783807	314
4	2884	48.575208928067	315
4	2888	48.597827579596	316
4	2896	48.676258084109	317
4	2898	48.681326101942	318
4	2901	48.692077409589	319
4	2929	49.29955443541	320
4	2937	49.478870220352	321
4	2943	49.548961105313	322
4	2952	49.63960596609	323
4	2960	49.721334535312	324
4	2973	49.913384665884	325
4	2976	49.921171548711	326
4	2994	50.223087459142	327
4	2998	50.291324235861	328
4	3016	50.847818324647	329
4	3019	50.850333489546	330
4	3031	51.14082007517	331
4	3039	51.180169471545	332
4	3042	51.181936956333	333
4	3055	51.399106068631	334
4	3063	51.466043991709	335
4	3080	51.898735754524	336
4	3088	52.095130509127	337
4	3100	52.30307421193	338
4	3104	52.331318458213	339
4	3109	52.393510339612	340
4	3119	52.50393000461	341
4	3128	52.604799082135	342
4	3131	52.613179590068	343
4	3133	52.675276428469	344
4	3139	52.708747309684	345
4	3142	52.738421735803	346
4	3144	52.741226056366	347
4	3148	52.769353899046	348
4	3166	53.006115807362	349
4	3169	53.099505408959	350
4	3176	53.137531264731	351
4	3197	53.448935923797	352
4	3203	53.512484489001	353
4	3228	53.945166132262	354
4	3242	54.339998961644	355
4	3250	54.480569769303	356
4	3260	54.663389289805	357
4	3270	54.799583893904	358
4	3273	54.804437414601	359
4	3287	55.034062098541	360
4	3291	55.061055699774	361
4	3302	55.165035665205	362
4	3310	55.310757988919	363
4	3313	55.318510424788	364
4	3327	55.44764897029	365
4	3337	55.627794606271	366
4	3345	55.668544816822	367
4	3366	56.400414750021	368
4	3378	56.808616988408	369
4	3382	56.855262159153	370
4	3391	56.998036615284	371
4	3404	57.168526089573	372
4	3412	57.283588037759	373
4	3426	57.583163832882	374
4	3432	57.716870619419	375
4	3444	57.925322178985	376
4	3452	58.121789984689	377
4	3468	58.622480134767	378
4	3472	58.678563109152	379
4	3481	58.799760117162	380
4	3489	58.875939885565	381
4	3492	58.911752816492	382
4	3499	58.947081502505	383
4	3503	58.984821294472	384
4	3505	59.015726101744	385
4	3512	59.052754992064	386
4	3538	59.486116330849	387
4	3548	59.612563147161	388
4	3561	59.814365262146	389
4	3567	59.904617110125	390
4	3576	60.00575379557	391
4	3593	60.532925597651	392
4	3599	60.571627512242	393
4	3609	60.742798197671	394
4	3615	60.786824345459	395
4	3618	60.800197488958	396
4	3620	60.809164633395	397
4	3622	60.817875487712	398
4	3630	60.903360122508	399
4	3639	61.003727181061	400
4	3646	61.05977765022	401
4	3667	61.3790781644	402
4	3681	61.557856879948	403
4	3698	62.119861072022	404
4	3704	62.191023515572	405
4	3714	62.335239451308	406
4	3720	62.364934611608	407
4	3729	62.482230969739	408
4	3732	62.485979222736	409
4	3751	62.775233243268	410
4	3755	62.785675893929	411
4	3769	62.989965652575	412
4	3779	63.160596428406	413
4	3785	63.258281038194	414
4	3792	63.348968220944	415
4	3805	63.518521552831	416
4	3815	63.633889522995	417
4	3825	63.773998572886	418
4	3837	64.114474575254	419
4	3845	64.302605065768	420
4	3863	64.998552944724	421
4	3867	65.093642447633	422
4	3874	65.130316100939	423
4	3884	65.221641038	424
4	3894	65.384826703042	425
4	3909	65.740164428668	426
4	3915	65.78600516394	427
4	3918	65.808144568874	428
4	3920	65.811274651666	429
4	3926	65.850327363398	430
4	3940	66.063384881736	431
4	3959	66.383419374857	432
4	3965	66.441272528964	433
4	3981	66.793449093178	434
4	3985	66.865994851301	435
4	3997	67.021672362624	436
4	4007	67.154797651897	437
4	4011	67.213683606125	438
4	4027	67.48040510665	439
4	4035	67.590410257625	440
4	4043	67.73913590156	441
4	4046	67.739144204344	442
4	4064	68.048267390476	443
4	4068	68.104331884548	444
4	4074	68.152268082779	445
4	4079	68.235393707136	446
4	4096	68.475351623412	447
4	4110	68.800216175543	448
4	4114	68.831018340853	449
4	4126	69.001876988454	450
4	4140	69.459854688893	451
4	4144	69.551211380799	452
4	4156	69.725678373313	453
4	4164	69.824753835275	454
4	4171	69.861161609326	455
4	4184	70.094361049997	456
4	4198	70.53603309161	457
4	4204	70.575129111016	458
4	4216	70.772005309961	459
4	4228	71.090417308052	460
4	4232	71.134360026825	461
4	4240	71.190824429553	462
4	4243	71.226812957468	463
4	4264	71.70037728868	464
4	4272	71.809911438466	465
4	4278	71.905639729305	466
4	4281	71.909539391084	467
4	4294	72.096042007776	468
4	4302	72.130920760534	469
4	4307	72.155951956719	470
4	4314	72.238877712317	471
4	4328	72.435523567541	472
4	4331	72.505825038938	473
4	4345	72.661705884425	474
4	4355	72.75513028089	475
4	4358	72.791418227606	476
4	4365	72.840200630302	477
4	4367	72.871154329343	478
4	4376	73.003722177748	479
4	4395	73.250933603722	480
4	4410	73.550039483914	481
4	4422	73.756241476984	482
4	4426	73.774996365473	483
4	4433	73.943515440405	484
4	4443	74.052794016815	485
4	4451	74.101423883838	486
4	4454	74.122670189057	487
4	4456	74.151509405183	488
4	4470	74.340781306206	489
4	4484	74.523631207983	490
4	4494	74.599273197971	491
4	4502	74.692578735833	492
4	4512	74.81758547193	493
4	4527	75.092874982371	494
4	4531	75.123243796926	495
4	4536	75.157630445707	496
4	4538	75.181101811265	497
4	4544	75.208142956202	498
4	4551	75.308574044831	499
4	4553	75.328575138322	500
4	4561	75.394493446896	501
4	4571	75.586557099993	502
4	4600	76.009652492255	503
4	4603	76.014291435989	504
4	4617	76.231724652453	505
4	4629	76.437876104616	506
4	4639	76.645020568966	507
4	4643	76.659595720721	508
4	4659	77.01066951482	509
4	4663	77.047449228716	510
4	4666	77.060515516205	511
4	4679	77.268012986128	512
4	4689	77.388521750528	513
4	4702	77.585865689273	514
4	4710	77.717597951081	515
4	4713	77.724601112628	516
4	4733	78.214875572751	517
4	4737	78.250073950139	518
4	4740	78.301901887695	519
4	4746	78.352625094922	520
4	4750	78.393954285478	521
4	4764	78.563592057356	522
4	4766	78.579445133472	523
4	4768	78.58921206319	524
4	4770	78.591696977353	525
4	4777	78.713368130687	526
4	4803	79.111251908015	527
4	4805	79.112644361672	528
4	4819	79.278905824804	529
4	4836	79.547404265476	530
4	4850	79.778078572647	531
4	4864	80.401474236981	532
4	4868	80.451110719157	533
4	4880	80.633464290161	534
4	4890	80.765896371905	535
4	4894	80.795962701168	536
4	4897	80.805876502772	537
4	4905	80.913613474788	538
4	4914	81.013334637221	539
4	4921	81.143619496941	540
4	4944	81.712723064404	541
4	4954	81.945074816277	542
4	4966	82.25880830217	543
4	4974	82.39870008046	544
4	4980	82.460609560469	545
4	4983	82.497571933801	546
4	5005	82.986410080379	547
4	5009	83.077501973672	548
4	5016	83.117038540597	549
4	5033	83.433671856754	550
4	5045	83.881001958075	551
4	5053	83.982672258383	552
4	5067	84.408168287389	553
4	5075	84.596753836725	554
4	5087	84.837572651185	555
4	5091	84.937449024181	556
4	5103	85.086768570686	557
4	5113	85.271700640141	558
4	5127	85.582764859606	559
4	5133	85.686180040283	560
4	5137	85.738193035851	561
4	5155	86.017407782298	562
4	5165	86.300923037012	563
4	5169	86.333337469501	564
4	5178	86.47763925849	565
4	5191	86.700275630888	566
4	5196	86.702274417612	567
4	5214	87.251223017227	568
4	5218	87.315203389032	569
4	5234	87.612615724723	570
4	5238	87.636665838896	571
4	5250	87.86407617837	572
4	5266	88.465268626601	573
4	5280	89.095547540538	574
4	5286	89.193167141892	575
4	5300	89.403268496436	576
4	5306	89.506460018205	577
4	5309	89.507068466403	578
4	5320	89.660096529596	579
4	5327	89.707196214305	580
4	5332	89.776164911971	581
4	5339	89.855434996216	582
4	5341	89.877518751813	583
4	5350	89.961369902312	584
4	5369	90.220364909273	585
4	5372	90.273404395562	586
4	5374	90.304984388793	587
4	5383	90.381891585187	588
4	5390	90.489298382886	589
4	5396	90.508585418477	590
4	5399	90.54668712523	591
4	5432	91.138832115364	592
4	5438	91.154277369922	593
4	5441	91.232439193085	594
4	5457	91.529722744251	595
4	5467	91.656043189677	596
4	5483	92.197384340425	597
4	5487	92.260533335132	598
4	5503	92.746527780167	599
4	5515	92.97982193422	600
4	5525	93.335380071312	601
4	5531	93.414874308203	602
4	5545	93.637988771354	603
4	5549	93.704761172265	604
4	5558	93.765538604616	605
4	5565	93.842037229693	606
4	5568	93.854724153457	607
4	5570	93.908618239226	608
4	5579	93.987063387274	609
4	5593	94.210958211903	610
4	5600	94.250598781523	611
4	5621	94.641584551871	612
4	5625	94.66290337858	613
4	5628	94.721928740248	614
4	5630	94.730164846131	615
4	5657	95.188393812982	616
4	5665	95.382365991801	617
4	5668	95.384472980487	618
4	5670	95.386196968018	619
4	5679	95.50056052065	620
4	5693	95.721391144349	621
4	5698	95.775877477184	622
4	5705	95.799717454132	623
4	5722	96.121375273809	624
4	5726	96.133804614747	625
4	5731	96.177081521299	626
4	5735	96.191162703391	627
4	5748	96.360869518532	628
4	5759	96.528102631818	629
4	5774	96.777547498919	630
4	5778	96.81977610229	631
4	5787	96.904660283535	632
4	5796	96.98650894075	633
4	5809	97.195739304439	634
4	5817	97.317992054073	635
4	5831	97.583435027554	636
4	5841	97.878943662393	637
4	5845	97.950415449783	638
4	5857	98.145182295124	639
4	5863	98.160412407715	640
4	5868	98.207686412022	641
4	5873	98.252071693009	642
4	5876	98.273216875671	643
4	5885	98.407666256424	644
4	5887	98.416211236294	645
4	5894	98.5132874419	646
4	5903	98.567131639657	647
4	5910	98.667527070455	648
4	5912	98.713122804339	649
4	5921	98.805138667778	650
4	5928	98.896498336077	651
4	5937	99.008035814843	652
4	5951	99.180497023005	653
4	5958	99.26801058866	654
4	5971	99.44643502636	655
4	5986	99.733661365006	656
4	5995	99.783671865762	657
4	6002	99.868897438323	658
4	6004	99.94058513645	659
4	6025	100.203642333204	660
4	6028	100.233620663892	661
4	6035	100.340421873736	662
4	6054	100.573483699041	663
4	6058	100.587034285653	664
4	6061	100.595813470495	665
4	6071	100.75765250677	666
4	6083	100.936754512359	667
4	6088	100.971467658152	668
4	6105	101.197699942896	669
4	6117	101.479567708028	670
4	6127	101.704929627085	671
4	6135	101.876483220173	672
4	6141	101.921531982216	673
4	6144	101.951001265101	674
4	6152	102.021217233086	675
4	6154	102.032080099603	676
4	6163	102.164944196507	677
4	6165	102.166404507908	678
4	6172	102.21419208509	679
4	6191	102.548104683506	680
4	6200	102.617613187637	681
4	6202	102.639101140844	682
4	6204	102.672021364978	683
4	6223	102.898590605162	684
4	6232	102.99097849773	685
4	6253	103.379845789048	686
4	6256	103.386691496472	687
4	6265	103.575075519123	688
4	6280	103.816338196486	689
4	6286	103.917580842534	690
4	6290	103.929592670926	691
4	6300	104.0246824899	692
4	6308	104.13441429077	693
4	6325	104.455879245834	694
4	6329	104.510846939609	695
4	6338	104.611381721095	696
4	6346	104.740631844864	697
4	6356	104.820942497528	698
4	6373	105.30166382197	699
4	6377	105.330358228855	700
4	6386	105.48594499297	701
4	6396	105.582681266645	702
4	6399	105.588081691107	703
4	6416	105.817708953948	704
4	6422	105.902132734221	705
4	6434	106.024067488399	706
4	6442	106.131075130819	707
4	6448	106.157204404875	708
4	6457	106.272442406155	709
4	6460	106.295735243981	710
4	6474	106.467304550849	711
4	6484	106.624547916592	712
4	6492	106.673323547165	713
4	6502	106.789549904091	714
4	6505	106.81024288888	715
4	6512	106.869351524672	716
4	6519	106.944155374603	717
4	6523	106.968007177123	718
4	6565	107.437931600555	719
4	6568	107.464061408042	720
4	6571	107.49513918538	721
4	6573	107.515927208593	722
4	6608	107.867413198107	723
4	6622	107.997153914521	724
4	6634	108.11487946746	725
4	6637	108.129399088306	726
4	6650	108.220971515056	727
4	6680	108.583073979632	728
4	6694	108.903687233195	729
4	6697	108.916679782362	730
4	6703	109.008720413823	731
4	6717	109.250420213691	732
4	6736	109.443614509952	733
4	6760	109.75810995098	734
4	6763	109.83449032401	735
4	6765	109.849208252404	736
4	6789	110.200788698524	737
4	6793	110.284137535498	738
4	6804	110.45982708974	739
4	6810	110.55597312153	740
4	6821	110.736380189104	741
4	6832	110.866575686407	742
4	6834	110.92613782891	743
4	6847	111.115084004504	744
4	6859	111.327151503935	745
4	6861	111.331267819	746
4	6868	111.482883193465	747
4	6879	111.680061508178	748
4	6883	111.721231036479	749
4	6894	111.939715068215	750
4	6898	111.965964325448	751
4	6900	111.967436490908	752
4	6913	112.206169909327	753
4	6915	112.261457350269	754
4	6938	112.741195596785	755
4	6942	112.780959561996	756
4	6945	112.872871378726	757
4	6951	112.977875224143	758
4	6959	113.111975434545	759
4	6979	113.572936717963	760
4	6990	113.86543325474	761
4	6996	113.987836039335	762
4	7000	114.079494673528	763
4	7002	114.094877457479	764
4	7014	114.549968843339	765
4	7022	114.695770476998	766
4	7026	114.82438574239	767
4	7035	115.122576660617	768
4	7044	115.380437057385	769
4	7048	115.406167851491	770
4	7059	115.765444819899	771
4	7077	116.497969668451	772
4	7084	116.751504911665	773
4	7088	116.764829769063	774
4	7092	116.790878253544	775
4	7094	116.805761482517	776
4	7099	116.954453408381	777
4	7103	117.105061084463	778
4	7109	117.181294002571	779
4	7120	117.62856095117	780
4	7123	117.638275805088	781
4	7134	118.05236647344	782
4	7138	118.135122015329	783
4	7144	118.224084254928	784
4	7146	118.268983512291	785
4	7153	118.46410912641	786
4	7160	118.747718499575	787
4	7168	118.951076276653	788
4	7172	118.956157054939	789
4	7174	119.011162828008	790
4	7188	119.49022710891	791
4	7190	119.50936314498	792
4	7194	119.575224692818	793
4	7198	119.66324001382	794
4	7200	119.729413235429	795
4	7205	119.80399462838	796
4	7207	119.806464120978	797
4	7211	119.920308837115	798
4	7215	119.951036677187	799
4	7224	120.231032747714	800
4	7228	120.307971796488	801
4	7232	120.423241183097	802
4	7244	120.820619422432	803
4	7252	120.99166125397	804
4	7254	121.007401166069	805
4	7257	121.148326463948	806
4	7270	121.584214404496	807
4	7274	121.599765029992	808
4	7281	121.905209158083	809
4	7283	121.919690349937	810
4	7289	122.010505417183	811
4	7291	122.019144354706	812
4	7295	122.078479194765	813
4	7297	122.092055315287	814
4	7299	122.131795555933	815
4	7303	122.172404214544	816
4	7308	122.315372595284	817
4	7317	122.589803918663	818
4	7319	122.594849006801	819
4	7323	122.705687009792	820
4	7325	122.708046378358	821
4	7331	122.815993113011	822
4	7334	122.899994369011	823
4	7340	123.0573956939	824
4	7342	123.067970986154	825
4	7348	123.185954849938	826
4	7350	123.229495862206	827
4	7352	123.234446459964	828
4	7355	123.271939082461	829
4	7361	123.402118362944	830
4	7365	123.445910273703	831
4	7370	123.667073607421	832
4	7372	123.688144964964	833
4	7378	123.75894017813	834
4	7380	123.760756564889	835
4	7384	123.862059945415	836
4	7386	123.880467196513	837
4	7402	124.480101718021	838
4	7408	124.624640622464	839
4	7411	124.666727011391	840
4	7428	125.21566132916	841
4	7430	125.285999528251	842
4	7450	125.982041527643	843
4	7452	125.989051762903	844
4	7455	126.067956382267	845
4	7457	126.123630640387	846
4	7461	126.150312154065	847
4	7470	126.417452355299	848
4	7476	126.57018499212	849
4	7483	126.816962506181	850
4	7487	126.918054022814	851
4	7493	127.071311774925	852
4	7513	127.753485352704	853
4	7516	127.822339541827	854
4	7518	127.832469665359	855
4	7522	127.888728956827	856
4	7528	128.118069787434	857
4	7539	128.360868947397	858
4	7541	128.411904530339	859
4	7543	128.422862278912	860
4	7545	128.464308057851	861
4	7552	128.63690744679	862
4	7558	128.799837943464	863
4	7561	128.871719847637	864
4	7563	128.914086854431	865
4	7571	129.06482685079	866
4	7576	129.229255734941	867
4	7587	129.621601874804	868
4	7591	129.730858510759	869
4	7602	130.019419296359	870
4	7606	130.102189614605	871
4	7610	130.205466697812	872
4	7613	130.326813652082	873
4	7619	130.410562670472	874
4	7623	130.461314588277	875
4	7630	130.720682533929	876
4	7636	130.904602365764	877
4	7643	131.105643760061	878
4	7649	131.186028579362	879
4	7651	131.274927192052	880
4	7654	131.341998177442	881
4	7671	131.862594939522	882
4	7678	132.12720804835	883
4	7684	132.194893868124	884
4	7695	132.583367789949	885
4	7697	132.659376272034	886
4	7699	132.666441162692	887
4	7706	132.867744123869	888
4	7710	132.90746146487	889
4	7714	132.99688724858	890
4	7717	133.061163389207	891
4	7728	133.476535061633	892
4	7736	133.729617804947	893
4	7741	133.774223834133	894
4	7758	134.409176203583	895
4	7761	134.481307937228	896
4	7778	135.002236293113	897
4	7783	135.181409784639	898
4	7792	135.53440999985	899
4	7803	135.875466074853	900
4	7805	135.928231182667	901
4	7809	135.947586958145	902
4	7829	136.67204499534	903
4	7831	136.713515902822	904
4	7837	136.75655226713	905
4	7839	136.795419105512	906
4	7841	136.812210786684	907
4	7844	136.91306822199	908
4	7859	137.365313462818	909
4	7868	137.698495590298	910
4	7870	137.738368072651	911
4	7876	137.804868232051	912
4	7881	137.980433591553	913
4	7885	138.053411462517	914
4	7887	138.062430717887	915
4	7898	138.435275380539	916
4	7904	138.632069842702	917
4	7907	138.650194552141	918
4	7917	138.970399911322	919
4	7922	139.119994749947	920
4	7926	139.167702931726	921
4	7930	139.189078373574	922
4	7932	139.26055574672	923
4	7934	139.330875100466	924
4	7939	139.40120682381	925
4	7943	139.460031017253	926
4	7949	139.66724987923	927
4	7956	139.83821919023	928
4	7958	139.878952558982	929
4	7965	140.117056143436	930
4	7969	140.145340852074	931
4	7975	140.250497678473	932
4	7977	140.339980166005	933
4	7982	140.392678358236	934
4	7984	140.447140184264	935
4	7995	140.772824066467	936
4	8003	141.04695300664	937
4	8006	141.112002734946	938
4	8008	141.15272322991	939
4	8018	141.353858488599	940
4	8021	141.458549120924	941
4	8027	141.580123093001	942
4	8040	142.008736895173	943
4	8042	142.042493269252	944
4	8047	142.193260616538	945
4	8051	142.312543946734	946
4	8062	142.615481622217	947
4	8066	142.725465423019	948
4	8077	143.148002182514	949
4	8082	143.21233895788	950
4	8090	143.420742733922	951
4	8092	143.424481948281	952
4	8097	143.604865549987	953
4	8099	143.629036936811	954
4	8114	144.145178543949	955
4	8118	144.166387510859	956
4	8137	144.944156924314	957
4	8143	145.128764751969	958
4	8149	145.218937948927	959
4	8156	145.404139930335	960
4	8158	145.415165886948	961
4	8164	145.557081148136	962
4	8166	145.60904614726	963
4	8173	145.776214882017	964
4	8175	145.801008833865	965
4	8179	145.890008419104	966
4	8183	145.971068823744	967
4	8188	146.149716041753	968
4	8192	146.170827815067	969
4	8196	146.242128765513	970
4	8201	146.381124555558	971
4	8203	146.396933975045	972
4	8207	146.469320257319	973
4	8222	146.953117669876	974
4	8231	147.291739188489	975
4	8233	147.303017959864	976
4	8247	147.818361468736	977
4	8249	147.821284862679	978
4	8255	147.94002622687	979
4	8269	148.523662740431	980
4	8275	148.571863785861	981
4	8277	148.595973291946	982
4	8281	148.730531244062	983
4	8285	148.775434194503	984
4	8294	149.116040710613	985
4	8297	149.152452526217	986
4	8301	149.230769221879	987
4	8309	149.360863024704	988
4	8311	149.481333540492	989
4	8329	150.039244787127	990
4	8331	150.08679139411	991
4	8333	150.134617551372	992
4	8338	150.225785265989	993
4	8353	150.75214479864	994
4	8357	150.82919764063	995
4	8359	150.833071847294	996
4	8361	150.875907185369	997
4	8372	151.204354192553	998
4	8375	151.310096590759	999
4	8383	151.495059899842	1000
4	8385	151.550802263066	1001
4	8390	151.59961477064	1002
4	8392	151.669644422174	1003
4	8403	152.007518352685	1004
4	8407	152.119175091895	1005
4	8409	152.123207184822	1006
4	8416	152.331508775902	1007
4	8422	152.47888802731	1008
4	8426	152.53974697889	1009
4	8430	152.599716269762	1010
4	8441	152.98658323938	1011
4	8455	153.498821974745	1012
4	8466	153.796243861786	1013
4	8468	153.823936242722	1014
4	8470	153.831423583086	1015
4	8481	154.179052492471	1016
4	8483	154.22293508265	1017
4	8487	154.282992312369	1018
4	8491	154.37161759543	1019
4	8500	154.701666993497	1020
4	8502	154.718244374987	1021
4	8507	154.825999250269	1022
4	8511	154.890265404588	1023
4	8517	154.997460532695	1024
4	8524	155.199577856249	1025
4	8526	155.272944117842	1026
4	8533	155.44410061798	1027
4	8539	155.557382390644	1028
4	8543	155.703464179366	1029
4	8554	156.137731821919	1030
4	8561	156.323686534011	1031
4	8572	156.658732511676	1032
4	8576	156.693130087422	1033
4	8581	156.862698667169	1034
4	8583	156.925412416011	1035
4	8591	157.078255393172	1036
4	8596	157.247419458208	1037
4	8602	157.366650383618	1038
4	8611	157.683736405815	1039
4	8613	157.731495358223	1040
4	8619	157.849178862761	1041
4	8621	157.873251478865	1042
4	8624	157.923090572402	1043
4	8634	158.214097803884	1044
4	8636	158.218703069836	1045
4	8643	158.369905100909	1046
4	8649	158.555760577016	1047
4	8652	158.609185444251	1048
4	8654	158.610372746227	1049
4	8658	158.702861709505	1050
4	8662	158.772806263471	1051
4	8664	158.776531244633	1052
4	8668	158.889956181802	1053
4	8673	159.012445085129	1054
4	8686	159.395316559161	1055